<?xml version="1.0" encoding="UTF-8"?>

<!-- generated on 2026-06-16 12:14:33 by Eclipse SUMO GUI Version 1.22.0
<sumoConfiguration xmlns:xsi="http://www.w3.org/2001/XMLSchema-instance" xsi:noNamespaceSchemaLocation="http://sumo.dlr.de/xsd/sumoConfiguration.xsd">

    <input>
        <net-file value="C:\Users\UBordeaux\Desktop\urban-digital-twin\simulations\sumo\map.net.xml"/>
        <route-files value="C:\Users\UBordeaux\Desktop\urban-digital-twin\simulations\sumo\routes.rou.xml"/>
    </input>

    <output>
        <fcd-output value="C:\Users\UBordeaux\Desktop\urban-digital-twin\simulations\sumo\fcd.xml"/>
        <fcd-output.geo value="true"/>
    </output>

</sumoConfiguration>
-->

<fcd-export xmlns:xsi="http://www.w3.org/2001/XMLSchema-instance" xsi:noNamespaceSchemaLocation="http://sumo.dlr.de/xsd/fcd_file.xsd">
    <timestep time="0.00">
        <vehicle id="0" x="-0.558005" y="44.828791" angle="309.42" type="DEFAULT_VEHTYPE" speed="0.00" pos="5.10" lane="25658827#7_0" slope="0.00"/>
    </timestep>
    <timestep time="1.00">
        <vehicle id="0" x="-0.558026" y="44.828803" angle="309.42" type="DEFAULT_VEHTYPE" speed="2.12" pos="7.22" lane="25658827#7_0" slope="0.00"/>
        <vehicle id="1" x="-0.554374" y="44.829029" angle="230.21" type="DEFAULT_VEHTYPE" speed="0.00" pos="4.82" lane="1484242275#0_0" slope="0.00"/>
    </timestep>
    <timestep time="2.00">
        <vehicle id="0" x="-0.558069" y="44.828830" angle="309.75" type="DEFAULT_VEHTYPE" speed="4.55" pos="11.77" lane="25658827#7_0" slope="0.00"/>
        <vehicle id="1" x="-0.554388" y="44.829020" angle="229.58" type="DEFAULT_VEHTYPE" speed="1.43" pos="1.43" lane=":9945420837_1_0" slope="0.00"/>
        <vehicle id="2" x="-0.561986" y="44.830740" angle="265.16" type="DEFAULT_VEHTYPE" speed="0.00" pos="0.26" lane="26647378#0_0" slope="0.00"/>
    </timestep>
    <timestep time="3.00">
        <vehicle id="0" x="-0.558122" y="44.828873" angle="316.91" type="DEFAULT_VEHTYPE" speed="6.38" pos="5.50" lane=":1406020836_0_0" slope="0.00"/>
        <vehicle id="1" x="-0.554416" y="44.828996" angle="220.33" type="DEFAULT_VEHTYPE" speed="3.52" pos="4.95" lane=":9945420837_1_0" slope="0.00"/>
        <vehicle id="2" x="-0.562017" y="44.830740" angle="267.33" type="DEFAULT_VEHTYPE" speed="2.49" pos="2.49" lane=":656500679_0_0" slope="0.00"/>
        <vehicle id="3" x="-0.558754" y="44.831549" angle="128.21" type="DEFAULT_VEHTYPE" speed="0.00" pos="2.83" lane="614506959_0" slope="0.00"/>
    </timestep>
    <timestep time="4.00">
        <vehicle id="0" x="-0.558189" y="44.828930" angle="311.88" type="DEFAULT_VEHTYPE" speed="8.37" pos="0.09" lane=":1981172466_0_0" slope="0.00"/>
        <vehicle id="1" x="-0.554444" y="44.828945" angle="199.03" type="DEFAULT_VEHTYPE" speed="6.09" pos="3.51" lane=":256426674_0_0" slope="0.00"/>
        <vehicle id="2" x="-0.562074" y="44.830740" angle="268.90" type="DEFAULT_VEHTYPE" speed="4.51" pos="2.09" lane="26647378#1_0" slope="0.00"/>
        <vehicle id="3" x="-0.558742" y="44.831540" angle="130.36" type="DEFAULT_VEHTYPE" speed="1.36" pos="1.36" lane=":35232776_5_0" slope="0.00"/>
        <vehicle id="4" x="-0.561223" y="44.829047" angle="238.17" type="DEFAULT_VEHTYPE" speed="0.00" pos="5.10" lane="133759046#2_0" slope="0.00"/>
    </timestep>
    <timestep time="5.00">
        <vehicle id="0" x="-0.558285" y="44.828990" angle="309.05" type="DEFAULT_VEHTYPE" speed="10.10" pos="5.14" lane="25658827#10_0" slope="0.00"/>
        <vehicle id="1" x="-0.554456" y="44.828876" angle="182.37" type="DEFAULT_VEHTYPE" speed="7.77" pos="7.60" lane="1484242275#2_0" slope="0.00"/>
        <vehicle id="2" x="-0.562158" y="44.830741" angle="269.16" type="DEFAULT_VEHTYPE" speed="6.62" pos="8.71" lane="26647378#1_0" slope="0.00"/>
        <vehicle id="3" x="-0.558725" y="44.831518" angle="143.16" type="DEFAULT_VEHTYPE" speed="2.90" pos="4.25" lane=":35232776_5_0" slope="0.00"/>
        <vehicle id="4" x="-0.561247" y="44.829037" angle="238.17" type="DEFAULT_VEHTYPE" speed="2.21" pos="7.31" lane="133759046#2_0" slope="0.00"/>
        <vehicle id="5" x="-0.567578" y="44.831433" angle="275.27" type="DEFAULT_VEHTYPE" speed="0.00" pos="0.20" lane="-182169760#0_0" slope="0.00"/>
    </timestep>
    <timestep time="6.00">
        <vehicle id="0" x="-0.558404" y="44.829064" angle="309.05" type="DEFAULT_VEHTYPE" speed="12.49" pos="17.63" lane="25658827#10_0" slope="0.00"/>
        <vehicle id="1" x="-0.554461" y="44.828812" angle="180.88" type="DEFAULT_VEHTYPE" speed="7.08" pos="1.62" lane="1484242275#3_0" slope="0.00"/>
        <vehicle id="2" x="-0.562263" y="44.830742" angle="269.16" type="DEFAULT_VEHTYPE" speed="8.29" pos="17.00" lane="26647378#1_0" slope="0.00"/>
        <vehicle id="3" x="-0.558742" y="44.831482" angle="191.60" type="DEFAULT_VEHTYPE" speed="4.30" pos="8.55" lane=":35232776_5_0" slope="0.00"/>
        <vehicle id="4" x="-0.561297" y="44.829016" angle="238.17" type="DEFAULT_VEHTYPE" speed="4.51" pos="0.95" lane=":9103942716_0_0" slope="0.00"/>
        <vehicle id="5" x="-0.567595" y="44.831430" angle="274.02" type="DEFAULT_VEHTYPE" speed="1.38" pos="1.38" lane=":250288125_1_0" slope="0.00"/>
        <vehicle id="6" x="-0.565090" y="44.835773" angle="139.22" type="DEFAULT_VEHTYPE" speed="0.00" pos="5.10" lane="25803468#1_0" slope="0.00"/>
    </timestep>
    <timestep time="7.00">
        <vehicle id="0" x="-0.558536" y="44.829145" angle="309.05" type="DEFAULT_VEHTYPE" speed="13.81" pos="31.44" lane="25658827#10_0" slope="0.00"/>
        <vehicle id="1" x="-0.554463" y="44.828750" angle="179.81" type="DEFAULT_VEHTYPE" speed="6.94" pos="8.56" lane="1484242275#3_0" slope="0.00"/>
        <vehicle id="2" x="-0.562368" y="44.830744" angle="269.16" type="DEFAULT_VEHTYPE" speed="8.32" pos="25.32" lane="26647378#1_0" slope="0.00"/>
        <vehicle id="3" x="-0.558763" y="44.831420" angle="218.74" type="DEFAULT_VEHTYPE" speed="6.34" pos="5.48" lane=":2076358908_0_1" slope="0.00"/>
        <vehicle id="4" x="-0.561366" y="44.828988" angle="238.18" type="DEFAULT_VEHTYPE" speed="6.36" pos="7.31" lane=":9103942716_0_0" slope="0.00"/>
        <vehicle id="5" x="-0.567601" y="44.831415" angle="243.90" type="DEFAULT_VEHTYPE" speed="2.06" pos="3.44" lane=":250288125_1_0" slope="0.00"/>
        <vehicle id="6" x="-0.565070" y="44.835755" angle="139.22" type="DEFAULT_VEHTYPE" speed="2.55" pos="7.65" lane="25803468#1_0" slope="0.00"/>
        <vehicle id="7" x="-0.554988" y="44.829354" angle="122.87" type="DEFAULT_VEHTYPE" speed="0.00" pos="5.10" lane="133759304#1_0" slope="0.00"/>
    </timestep>
    <timestep time="8.00">
        <vehicle id="0" x="-0.558669" y="44.829226" angle="309.05" type="DEFAULT_VEHTYPE" speed="13.84" pos="45.28" lane="25658827#10_0" slope="0.00"/>
        <vehicle id="1" x="-0.554466" y="44.828686" angle="179.81" type="DEFAULT_VEHTYPE" speed="7.07" pos="15.63" lane="1484242275#3_0" slope="0.00"/>
        <vehicle id="2" x="-0.562473" y="44.830745" angle="269.16" type="DEFAULT_VEHTYPE" speed="8.29" pos="33.61" lane="26647378#1_0" slope="0.00"/>
        <vehicle id="3" x="-0.558833" y="44.831359" angle="217.16" type="DEFAULT_VEHTYPE" speed="8.85" pos="3.84" lane=":279706833_1_1" slope="0.00"/>
        <vehicle id="4" x="-0.561461" y="44.828953" angle="243.00" type="DEFAULT_VEHTYPE" speed="8.53" pos="6.41" lane="133759046#3_0" slope="0.00"/>
        <vehicle id="5" x="-0.567583" y="44.831403" angle="176.39" type="DEFAULT_VEHTYPE" speed="2.07" pos="0.64" lane=":1401178315_3_0" slope="0.00"/>
        <vehicle id="6" x="-0.565029" y="44.835719" angle="139.22" type="DEFAULT_VEHTYPE" speed="5.08" pos="12.73" lane="25803468#1_0" slope="0.00"/>
        <vehicle id="7" x="-0.554976" y="44.829346" angle="124.66" type="DEFAULT_VEHTYPE" speed="1.32" pos="1.21" lane=":1979396455_4_0" slope="0.00"/>
        <vehicle id="8" x="-0.570037" y="44.829202" angle="89.62" type="DEFAULT_VEHTYPE" speed="0.00" pos="0.20" lane="427689121#4_0" slope="0.00"/>
    </timestep>
    <timestep time="9.00">
        <vehicle id="0" x="-0.558807" y="44.829302" angle="300.71" type="DEFAULT_VEHTYPE" speed="13.86" pos="5.66" lane=":12914303717_3_0" slope="0.00"/>
        <vehicle id="1" x="-0.554468" y="44.828620" angle="179.81" type="DEFAULT_VEHTYPE" speed="7.42" pos="23.05" lane="1484242275#3_0" slope="0.00"/>
        <vehicle id="2" x="-0.562577" y="44.830741" angle="263.39" type="DEFAULT_VEHTYPE" speed="8.26" pos="41.86" lane="26647378#1_0" slope="0.00"/>
        <vehicle id="3" x="-0.558897" y="44.831278" angle="202.26" type="DEFAULT_VEHTYPE" speed="10.83" pos="3.42" lane="187403217#1_1" slope="0.00"/>
        <vehicle id="4" x="-0.561531" y="44.828955" angle="273.22" type="DEFAULT_VEHTYPE" speed="5.75" pos="3.48" lane=":250511571_2_0" slope="0.00"/>
        <vehicle id="5" x="-0.567547" y="44.831372" angle="136.81" type="DEFAULT_VEHTYPE" speed="4.67" pos="5.31" lane=":1401178315_3_0" slope="0.00"/>
        <vehicle id="6" x="-0.564988" y="44.835683" angle="139.22" type="DEFAULT_VEHTYPE" speed="5.21" pos="17.94" lane="25803468#1_0" slope="0.00"/>
        <vehicle id="7" x="-0.554956" y="44.829326" angle="135.51" type="DEFAULT_VEHTYPE" speed="2.76" pos="3.97" lane=":1979396455_4_0" slope="0.00"/>
        <vehicle id="8" x="-0.570016" y="44.829204" angle="86.16" type="DEFAULT_VEHTYPE" speed="1.67" pos="1.67" lane=":250323969_3_0" slope="0.00"/>
        <vehicle id="9" x="-0.563423" y="44.834910" angle="52.40" type="DEFAULT_VEHTYPE" speed="0.00" pos="0.20" lane="40110259_0" slope="0.00"/>
    </timestep>
    <timestep time="10.00">
        <vehicle id="0" x="-0.558958" y="44.829377" angle="308.82" type="DEFAULT_VEHTYPE" speed="14.59" pos="1.24" lane=":1981172485_0_0" slope="0.00"/>
        <vehicle id="1" x="-0.554470" y="44.828557" angle="179.81" type="DEFAULT_VEHTYPE" speed="6.98" pos="30.04" lane="1484242275#3_0" slope="0.00"/>
        <vehicle id="10" x="-0.558296" y="44.828468" angle="18.27" type="DEFAULT_VEHTYPE" speed="0.00" pos="5.10" lane="182169756#2_0" slope="0.00"/>
        <vehicle id="2" x="-0.562664" y="44.830706" angle="232.55" type="DEFAULT_VEHTYPE" speed="8.15" pos="50.01" lane="26647378#1_0" slope="0.00"/>
        <vehicle id="3" x="-0.558965" y="44.831171" angle="203.19" type="DEFAULT_VEHTYPE" speed="13.00" pos="4.17" lane=":1581075057_0_1" slope="0.00"/>
        <vehicle id="4" x="-0.561537" y="44.828999" angle="355.42" type="DEFAULT_VEHTYPE" speed="5.27" pos="8.75" lane=":250511571_2_0" slope="0.00"/>
        <vehicle id="5" x="-0.567556" y="44.831326" angle="187.26" type="DEFAULT_VEHTYPE" speed="5.24" pos="2.15" lane="26587170#0_0" slope="0.00"/>
        <vehicle id="6" x="-0.564945" y="44.835645" angle="139.22" type="DEFAULT_VEHTYPE" speed="5.40" pos="23.34" lane="25803468#1_0" slope="0.00"/>
        <vehicle id="7" x="-0.554965" y="44.829288" angle="183.79" type="DEFAULT_VEHTYPE" speed="4.43" pos="0.17" lane="1322308402_0" slope="0.00"/>
        <vehicle id="8" x="-0.569994" y="44.829236" angle="32.73" type="DEFAULT_VEHTYPE" speed="4.21" pos="0.78" lane=":4268789081_0_0" slope="0.00"/>
        <vehicle id="9" x="-0.563417" y="44.834924" angle="41.11" type="DEFAULT_VEHTYPE" speed="1.67" pos="1.67" lane=":388199588_4_0" slope="0.00"/>
    </timestep>
    <timestep time="11.00">
        <vehicle id="0" x="-0.559092" y="44.829460" angle="309.53" type="DEFAULT_VEHTYPE" speed="14.04" pos="10.31" lane="25658827#15_0" slope="0.00"/>
        <vehicle id="1" x="-0.554473" y="44.828491" angle="179.81" type="DEFAULT_VEHTYPE" speed="7.28" pos="37.32" lane="1484242275#3_0" slope="0.00"/>
        <vehicle id="10" x="-0.558289" y="44.828481" angle="18.27" type="DEFAULT_VEHTYPE" speed="1.56" pos="6.66" lane="182169756#2_0" slope="0.00"/>
        <vehicle id="11" x="-0.566933" y="44.832175" angle="37.56" type="DEFAULT_VEHTYPE" speed="0.00" pos="5.10" lane="689116465#0_0" slope="0.00"/>
        <vehicle id="2" x="-0.562713" y="44.830643" angle="197.73" type="DEFAULT_VEHTYPE" speed="8.15" pos="58.16" lane="26647378#1_0" slope="0.00"/>
        <vehicle id="3" x="-0.559045" y="44.831050" angle="203.28" type="DEFAULT_VEHTYPE" speed="14.80" pos="9.31" lane="187403217#2_1" slope="0.00"/>
        <vehicle id="4" x="-0.561517" y="44.829046" angle="15.49" type="DEFAULT_VEHTYPE" speed="5.45" pos="4.76" lane="225776393#3_0" slope="0.00"/>
        <vehicle id="5" x="-0.567577" y="44.831271" angle="193.83" type="DEFAULT_VEHTYPE" speed="6.42" pos="8.57" lane="26587170#0_0" slope="0.00"/>
        <vehicle id="6" x="-0.564900" y="44.835606" angle="139.23" type="DEFAULT_VEHTYPE" speed="5.62" pos="1.13" lane=":1338881214_0_0" slope="0.00"/>
        <vehicle id="7" x="-0.554965" y="44.829236" angle="175.55" type="DEFAULT_VEHTYPE" speed="5.95" pos="5.92" lane=":1979396423_1_0" slope="0.00"/>
        <vehicle id="8" x="-0.569989" y="44.829273" angle="3.06" type="DEFAULT_VEHTYPE" speed="4.14" pos="2.66" lane="427689122#1_0" slope="0.00"/>
        <vehicle id="9" x="-0.563448" y="44.834933" angle="324.94" type="DEFAULT_VEHTYPE" speed="3.13" pos="0.12" lane="-40110259_0" slope="0.00"/>
    </timestep>
    <timestep time="12.00">
        <vehicle id="0" x="-0.559224" y="44.829542" angle="309.53" type="DEFAULT_VEHTYPE" speed="13.88" pos="24.18" lane="25658827#15_0" slope="0.00"/>
        <vehicle id="1" x="-0.554475" y="44.828421" angle="179.81" type="DEFAULT_VEHTYPE" speed="7.80" pos="45.12" lane="1484242275#3_0" slope="0.00"/>
        <vehicle id="10" x="-0.558275" y="44.828509" angle="18.27" type="DEFAULT_VEHTYPE" speed="3.29" pos="9.95" lane="182169756#2_0" slope="0.00"/>
        <vehicle id="11" x="-0.566917" y="44.832189" angle="37.56" type="DEFAULT_VEHTYPE" speed="1.96" pos="7.06" lane="689116465#0_0" slope="0.00"/>
        <vehicle id="12" x="-0.569612" y="44.832043" angle="90.15" type="DEFAULT_VEHTYPE" speed="0.00" pos="5.10" lane="-26587067#1_0" slope="0.00"/>
        <vehicle id="2" x="-0.562741" y="44.830582" angle="196.64" type="DEFAULT_VEHTYPE" speed="7.12" pos="65.28" lane="26647378#1_0" slope="0.00"/>
        <vehicle id="3" x="-0.559125" y="44.830928" angle="203.28" type="DEFAULT_VEHTYPE" speed="14.99" pos="24.30" lane="187403217#2_1" slope="0.00"/>
        <vehicle id="4" x="-0.561489" y="44.829108" angle="15.79" type="DEFAULT_VEHTYPE" speed="7.24" pos="11.99" lane="225776393#3_0" slope="0.00"/>
        <vehicle id="5" x="-0.567597" y="44.831219" angle="193.83" type="DEFAULT_VEHTYPE" speed="5.94" pos="14.50" lane="26587170#0_0" slope="0.00"/>
        <vehicle id="6" x="-0.564864" y="44.835574" angle="139.26" type="DEFAULT_VEHTYPE" speed="4.52" pos="5.65" lane=":1338881214_0_0" slope="0.00"/>
        <vehicle id="7" x="-0.555010" y="44.829179" angle="209.02" type="DEFAULT_VEHTYPE" speed="7.33" pos="1.83" lane="144556880#1_0" slope="0.00"/>
        <vehicle id="8" x="-0.569985" y="44.829313" angle="3.07" type="DEFAULT_VEHTYPE" speed="4.51" pos="7.17" lane="427689122#1_0" slope="0.00"/>
        <vehicle id="9" x="-0.563440" y="44.834893" angle="172.27" type="DEFAULT_VEHTYPE" speed="4.87" pos="4.79" lane=":275318738_1_0" slope="0.00"/>
    </timestep>
    <timestep time="13.00">
        <vehicle id="0" x="-0.559360" y="44.829627" angle="309.53" type="DEFAULT_VEHTYPE" speed="14.34" pos="38.52" lane="25658827#15_0" slope="0.00"/>
        <vehicle id="1" x="-0.554478" y="44.828362" angle="179.81" type="DEFAULT_VEHTYPE" speed="6.53" pos="51.65" lane="1484242275#3_0" slope="0.00"/>
        <vehicle id="10" x="-0.558251" y="44.828556" angle="18.27" type="DEFAULT_VEHTYPE" speed="5.59" pos="15.54" lane="182169756#2_0" slope="0.00"/>
        <vehicle id="11" x="-0.566882" y="44.832220" angle="37.56" type="DEFAULT_VEHTYPE" speed="4.44" pos="11.50" lane="689116465#0_0" slope="0.00"/>
        <vehicle id="12" x="-0.569584" y="44.832042" angle="90.15" type="DEFAULT_VEHTYPE" speed="2.25" pos="7.35" lane="-26587067#1_0" slope="0.00"/>
        <vehicle id="13" x="-0.572105" y="44.829239" angle="89.75" type="DEFAULT_VEHTYPE" speed="0.00" pos="5.10" lane="427689121#1_0" slope="0.00"/>
        <vehicle id="2" x="-0.562774" y="44.830512" angle="196.64" type="DEFAULT_VEHTYPE" speed="8.27" pos="73.55" lane="26647378#1_0" slope="0.00"/>
        <vehicle id="3" x="-0.559203" y="44.830808" angle="203.28" type="DEFAULT_VEHTYPE" speed="14.65" pos="38.95" lane="187403217#2_1" slope="0.00"/>
        <vehicle id="4" x="-0.561459" y="44.829178" angle="15.79" type="DEFAULT_VEHTYPE" speed="8.09" pos="20.08" lane="225776393#3_0" slope="0.00"/>
        <vehicle id="5" x="-0.567620" y="44.831161" angle="193.83" type="DEFAULT_VEHTYPE" speed="6.67" pos="21.18" lane="26587170#0_0" slope="0.00"/>
        <vehicle id="6" x="-0.564831" y="44.835545" angle="139.26" type="DEFAULT_VEHTYPE" speed="4.15" pos="9.80" lane=":1338881214_0_0" slope="0.00"/>
        <vehicle id="7" x="-0.555068" y="44.829107" angle="208.62" type="DEFAULT_VEHTYPE" speed="9.21" pos="11.03" lane="144556880#1_0" slope="0.00"/>
        <vehicle id="8" x="-0.569979" y="44.829357" angle="3.07" type="DEFAULT_VEHTYPE" speed="4.95" pos="12.12" lane="427689122#1_0" slope="0.00"/>
        <vehicle id="9" x="-0.563403" y="44.834850" angle="146.05" type="DEFAULT_VEHTYPE" speed="5.54" pos="10.33" lane=":275318738_1_0" slope="0.00"/>
    </timestep>
    <timestep time="14.00">
        <vehicle id="0" x="-0.559492" y="44.829709" angle="309.20" type="DEFAULT_VEHTYPE" speed="13.80" pos="9.27" lane="25658827#16_0" slope="0.00"/>
        <vehicle id="1" x="-0.554480" y="44.828300" angle="179.81" type="DEFAULT_VEHTYPE" speed="6.89" pos="58.54" lane="1484242275#3_0" slope="0.00"/>
        <vehicle id="10" x="-0.558217" y="44.828622" angle="18.27" type="DEFAULT_VEHTYPE" speed="7.84" pos="23.39" lane="182169756#2_0" slope="0.00"/>
        <vehicle id="11" x="-0.566846" y="44.832251" angle="37.56" type="DEFAULT_VEHTYPE" speed="4.49" pos="15.99" lane="689116465#0_0" slope="0.00"/>
        <vehicle id="12" x="-0.569524" y="44.832041" angle="90.15" type="DEFAULT_VEHTYPE" speed="4.72" pos="12.07" lane="-26587067#1_0" slope="0.00"/>
        <vehicle id="13" x="-0.572088" y="44.829239" angle="89.75" type="DEFAULT_VEHTYPE" speed="1.36" pos="6.46" lane="427689121#1_0" slope="0.00"/>
        <vehicle id="14" x="-0.561005" y="44.829885" angle="105.89" type="DEFAULT_VEHTYPE" speed="0.00" pos="5.10" lane="491912114_0" slope="0.00"/>
        <vehicle id="2" x="-0.562803" y="44.830450" angle="196.64" type="DEFAULT_VEHTYPE" speed="7.29" pos="80.84" lane="26647378#1_0" slope="0.00"/>
        <vehicle id="3" x="-0.559282" y="44.830687" angle="202.92" type="DEFAULT_VEHTYPE" speed="14.87" pos="53.82" lane="187403217#2_1" slope="0.00"/>
        <vehicle id="4" x="-0.561430" y="44.829241" angle="15.79" type="DEFAULT_VEHTYPE" speed="7.41" pos="27.49" lane="225776393#3_0" slope="0.00"/>
        <vehicle id="5" x="-0.567642" y="44.831104" angle="193.83" type="DEFAULT_VEHTYPE" speed="6.59" pos="27.76" lane="26587170#0_0" slope="0.00"/>
        <vehicle id="6" x="-0.564790" y="44.835509" angle="139.52" type="DEFAULT_VEHTYPE" speed="5.18" pos="3.54" lane=":1267590588_1_0" slope="0.00"/>
        <vehicle id="7" x="-0.555140" y="44.829021" angle="208.62" type="DEFAULT_VEHTYPE" speed="11.15" pos="22.18" lane="144556880#1_0" slope="0.00"/>
        <vehicle id="8" x="-0.569975" y="44.829393" angle="3.07" type="DEFAULT_VEHTYPE" speed="3.94" pos="16.06" lane="427689122#1_0" slope="0.00"/>
        <vehicle id="9" x="-0.563365" y="44.834813" angle="142.57" type="DEFAULT_VEHTYPE" speed="5.18" pos="0.59" lane=":1981076532_0_2" slope="0.00"/>
    </timestep>
    <timestep time="15.00">
        <vehicle id="0" x="-0.559628" y="44.829783" angle="303.37" type="DEFAULT_VEHTYPE" speed="13.55" pos="1.36" lane=":2076395488_0_0" slope="0.00"/>
        <vehicle id="1" x="-0.554483" y="44.828230" angle="179.81" type="DEFAULT_VEHTYPE" speed="7.81" pos="66.35" lane="1484242275#3_0" slope="0.00"/>
        <vehicle id="10" x="-0.558175" y="44.828704" angle="18.27" type="DEFAULT_VEHTYPE" speed="9.68" pos="33.07" lane="182169756#2_0" slope="0.00"/>
        <vehicle id="11" x="-0.566796" y="44.832285" angle="45.66" type="DEFAULT_VEHTYPE" speed="5.49" pos="3.53" lane=":250288117_0_0" slope="0.00"/>
        <vehicle id="12" x="-0.569447" y="44.832039" angle="90.15" type="DEFAULT_VEHTYPE" speed="6.06" pos="18.13" lane="-26587067#1_0" slope="0.00"/>
        <vehicle id="13" x="-0.572050" y="44.829238" angle="89.75" type="DEFAULT_VEHTYPE" speed="2.98" pos="9.45" lane="427689121#1_0" slope="0.00"/>
        <vehicle id="14" x="-0.560986" y="44.829880" angle="105.89" type="DEFAULT_VEHTYPE" speed="1.55" pos="6.65" lane="491912114_0" slope="0.00"/>
        <vehicle id="15" x="-0.569548" y="44.828646" angle="95.75" type="DEFAULT_VEHTYPE" speed="0.00" pos="0.20" lane="548522713#2_0" slope="0.00"/>
        <vehicle id="2" x="-0.562837" y="44.830379" angle="196.64" type="DEFAULT_VEHTYPE" speed="8.31" pos="89.16" lane="26647378#1_0" slope="0.00"/>
        <vehicle id="3" x="-0.559359" y="44.830568" angle="202.92" type="DEFAULT_VEHTYPE" speed="14.54" pos="68.36" lane="187403217#2_1" slope="0.00"/>
        <vehicle id="4" x="-0.561399" y="44.829313" angle="15.79" type="DEFAULT_VEHTYPE" speed="8.28" pos="35.77" lane="225776393#3_0" slope="0.00"/>
        <vehicle id="5" x="-0.567663" y="44.831051" angle="193.83" type="DEFAULT_VEHTYPE" speed="6.15" pos="33.91" lane="26587170#0_0" slope="0.00"/>
        <vehicle id="6" x="-0.564745" y="44.835469" angle="139.69" type="DEFAULT_VEHTYPE" speed="5.70" pos="0.13" lane=":2076291586_0_0" slope="0.00"/>
        <vehicle id="7" x="-0.555217" y="44.828926" angle="208.62" type="DEFAULT_VEHTYPE" speed="12.13" pos="34.31" lane="144556880#1_0" slope="0.00"/>
        <vehicle id="8" x="-0.569971" y="44.829429" angle="3.07" type="DEFAULT_VEHTYPE" speed="4.01" pos="20.07" lane="427689122#1_0" slope="0.00"/>
        <vehicle id="9" x="-0.563312" y="44.834760" angle="142.22" type="DEFAULT_VEHTYPE" speed="7.20" pos="2.72" lane="26585800#1_2" slope="0.00"/>
    </timestep>
    <timestep time="16.00">
        <vehicle id="0" x="-0.559758" y="44.829860" angle="311.09" type="DEFAULT_VEHTYPE" speed="13.54" pos="2.17" lane="-25834215#2_0" slope="0.00"/>
        <vehicle id="1" x="-0.554485" y="44.828171" angle="179.81" type="DEFAULT_VEHTYPE" speed="6.55" pos="72.90" lane="1484242275#3_0" slope="0.00"/>
        <vehicle id="10" x="-0.558154" y="44.828749" angle="16.22" type="DEFAULT_VEHTYPE" speed="5.21" pos="3.18" lane=":2076395434_0_0" slope="0.00"/>
        <vehicle id="11" x="-0.566733" y="44.832274" angle="105.41" type="DEFAULT_VEHTYPE" speed="5.47" pos="1.01" lane=":3090779512_0_0" slope="0.00"/>
        <vehicle id="12" x="-0.569352" y="44.832037" angle="90.15" type="DEFAULT_VEHTYPE" speed="7.59" pos="25.72" lane="-26587067#1_0" slope="0.00"/>
        <vehicle id="13" x="-0.571991" y="44.829237" angle="89.75" type="DEFAULT_VEHTYPE" speed="4.71" pos="14.16" lane="427689121#1_0" slope="0.00"/>
        <vehicle id="14" x="-0.560948" y="44.829872" angle="105.89" type="DEFAULT_VEHTYPE" speed="3.19" pos="9.84" lane="491912114_0" slope="0.00"/>
        <vehicle id="15" x="-0.569530" y="44.828643" angle="96.97" type="DEFAULT_VEHTYPE" speed="1.44" pos="1.44" lane=":289522632_1_0" slope="0.00"/>
        <vehicle id="16" x="-0.566694" y="44.836167" angle="220.51" type="DEFAULT_VEHTYPE" speed="0.00" pos="1.85" lane="26586731#2_0" slope="0.00"/>
        <vehicle id="2" x="-0.562867" y="44.830314" angle="196.76" type="DEFAULT_VEHTYPE" speed="7.56" pos="1.37" lane=":279709343_0_0" slope="0.00"/>
        <vehicle id="3" x="-0.559412" y="44.830484" angle="202.40" type="DEFAULT_VEHTYPE" speed="10.04" pos="3.77" lane=":1981172526_0_1" slope="0.00"/>
        <vehicle id="4" x="-0.561374" y="44.829368" angle="15.79" type="DEFAULT_VEHTYPE" speed="6.47" pos="42.25" lane="225776393#3_0" slope="0.00"/>
        <vehicle id="5" x="-0.567686" y="44.830992" angle="193.83" type="DEFAULT_VEHTYPE" speed="6.82" pos="40.73" lane="26587170#0_0" slope="0.00"/>
        <vehicle id="6" x="-0.564702" y="44.835430" angle="139.58" type="DEFAULT_VEHTYPE" speed="5.46" pos="1.78" lane="25803468#4_0" slope="0.00"/>
        <vehicle id="7" x="-0.555291" y="44.828837" angle="208.64" type="DEFAULT_VEHTYPE" speed="11.49" pos="2.50" lane=":9105984656_1_0" slope="0.00"/>
        <vehicle id="8" x="-0.569966" y="44.829475" angle="3.07" type="DEFAULT_VEHTYPE" speed="5.16" pos="25.22" lane="427689122#1_0" slope="0.00"/>
        <vehicle id="9" x="-0.563248" y="44.834699" angle="142.06" type="DEFAULT_VEHTYPE" speed="8.53" pos="11.25" lane="26585800#1_2" slope="0.00"/>
    </timestep>
    <timestep time="17.00">
        <vehicle id="0" x="-0.559908" y="44.829951" angle="308.76" type="DEFAULT_VEHTYPE" speed="15.72" pos="8.16" lane="-25834215#0_0" slope="0.00"/>
        <vehicle id="1" x="-0.554487" y="44.828121" angle="179.78" type="DEFAULT_VEHTYPE" speed="7.14" pos="1.95" lane=":2788266826_12_0" slope="0.00"/>
        <vehicle id="10" x="-0.558138" y="44.828791" angle="14.09" type="DEFAULT_VEHTYPE" speed="4.88" pos="2.73" lane=":2076395437_0_0" slope="0.00"/>
        <vehicle id="11" x="-0.566678" y="44.832258" angle="110.95" type="DEFAULT_VEHTYPE" speed="4.70" pos="1.65" lane="240861039#1_0" slope="0.00"/>
        <vehicle id="12" x="-0.569238" y="44.832034" angle="90.15" type="DEFAULT_VEHTYPE" speed="8.95" pos="34.68" lane="-26587067#1_0" slope="0.00"/>
        <vehicle id="13" x="-0.571923" y="44.829236" angle="89.75" type="DEFAULT_VEHTYPE" speed="5.38" pos="19.53" lane="427689121#1_0" slope="0.00"/>
        <vehicle id="14" x="-0.560887" y="44.829858" angle="105.89" type="DEFAULT_VEHTYPE" speed="5.06" pos="14.91" lane="491912114_0" slope="0.00"/>
        <vehicle id="15" x="-0.569491" y="44.828634" angle="104.01" type="DEFAULT_VEHTYPE" speed="3.27" pos="4.71" lane=":289522632_1_0" slope="0.00"/>
        <vehicle id="16" x="-0.566713" y="44.836158" angle="227.45" type="DEFAULT_VEHTYPE" speed="1.73" pos="1.73" lane=":2001341975_0_0" slope="0.00"/>
        <vehicle id="17" x="-0.554163" y="44.828950" angle="153.76" type="DEFAULT_VEHTYPE" speed="0.00" pos="0.20" lane="1342423530#0_0" slope="0.00"/>
        <vehicle id="2" x="-0.562897" y="44.830250" angle="196.66" type="DEFAULT_VEHTYPE" speed="7.54" pos="5.91" lane="26647302#0_0" slope="0.00"/>
        <vehicle id="3" x="-0.559498" y="44.830420" angle="233.37" type="DEFAULT_VEHTYPE" speed="9.15" pos="8.44" lane=":254056049_0_1" slope="0.00"/>
        <vehicle id="4" x="-0.561344" y="44.829437" angle="15.77" type="DEFAULT_VEHTYPE" speed="7.99" pos="3.61" lane=":292315441_4_0" slope="0.00"/>
        <vehicle id="5" x="-0.567706" y="44.830942" angle="194.01" type="DEFAULT_VEHTYPE" speed="5.75" pos="2.08" lane=":4841261868_0_0" slope="0.00"/>
        <vehicle id="6" x="-0.564663" y="44.835396" angle="139.60" type="DEFAULT_VEHTYPE" speed="4.93" pos="6.71" lane="25803468#4_0" slope="0.00"/>
        <vehicle id="7" x="-0.555365" y="44.828748" angle="208.72" type="DEFAULT_VEHTYPE" speed="11.57" pos="4.66" lane="144556880#2_0" slope="0.00"/>
        <vehicle id="8" x="-0.569961" y="44.829517" angle="3.07" type="DEFAULT_VEHTYPE" speed="4.71" pos="29.93" lane="427689122#1_0" slope="0.00"/>
        <vehicle id="9" x="-0.563166" y="44.834618" angle="142.06" type="DEFAULT_VEHTYPE" speed="11.08" pos="22.32" lane="26585800#1_2" slope="0.00"/>
    </timestep>
    <timestep time="18.00">
        <vehicle id="0" x="-0.560076" y="44.830054" angle="308.76" type="DEFAULT_VEHTYPE" speed="17.49" pos="25.65" lane="-25834215#0_0" slope="0.00"/>
        <vehicle id="1" x="-0.554489" y="44.828052" angle="179.82" type="DEFAULT_VEHTYPE" speed="7.70" pos="0.31" lane="133758480#1_0" slope="0.00"/>
        <vehicle id="10" x="-0.558125" y="44.828832" angle="11.00" type="DEFAULT_VEHTYPE" speed="4.73" pos="2.86" lane=":2076395439_1_0" slope="0.00"/>
        <vehicle id="11" x="-0.566613" y="44.832240" angle="109.54" type="DEFAULT_VEHTYPE" speed="5.52" pos="7.17" lane="240861039#1_0" slope="0.00"/>
        <vehicle id="12" x="-0.569097" y="44.832031" angle="90.15" type="DEFAULT_VEHTYPE" speed="11.19" pos="45.86" lane="-26587067#1_0" slope="0.00"/>
        <vehicle id="13" x="-0.571848" y="44.829234" angle="89.75" type="DEFAULT_VEHTYPE" speed="5.91" pos="25.45" lane="427689121#1_0" slope="0.00"/>
        <vehicle id="14" x="-0.560807" y="44.829840" angle="105.89" type="DEFAULT_VEHTYPE" speed="6.58" pos="21.48" lane="491912114_0" slope="0.00"/>
        <vehicle id="15" x="-0.569441" y="44.828608" angle="124.13" type="DEFAULT_VEHTYPE" speed="4.89" pos="9.60" lane=":289522632_1_0" slope="0.00"/>
        <vehicle id="16" x="-0.566757" y="44.836138" angle="235.78" type="DEFAULT_VEHTYPE" speed="4.12" pos="0.81" lane="1213422865_0" slope="0.00"/>
        <vehicle id="17" x="-0.554143" y="44.828941" angle="143.86" type="DEFAULT_VEHTYPE" speed="2.01" pos="0.99" lane=":12419986824_0_0" slope="0.00"/>
        <vehicle id="18" x="-0.559782" y="44.829875" angle="309.11" type="DEFAULT_VEHTYPE" speed="0.00" pos="4.71" lane="-25834215#2_0" slope="0.00"/>
        <vehicle id="2" x="-0.562928" y="44.830183" angle="196.66" type="DEFAULT_VEHTYPE" speed="7.85" pos="13.77" lane="26647302#0_0" slope="0.00"/>
        <vehicle id="3" x="-0.559625" y="44.830411" angle="267.80" type="DEFAULT_VEHTYPE" speed="9.60" pos="4.34" lane="26647502#1_1" slope="0.00"/>
        <vehicle id="4" x="-0.561316" y="44.829500" angle="15.77" type="DEFAULT_VEHTYPE" speed="7.35" pos="10.96" lane=":292315441_4_0" slope="0.00"/>
        <vehicle id="5" x="-0.567726" y="44.830901" angle="197.82" type="DEFAULT_VEHTYPE" speed="4.81" pos="2.05" lane=":2414714944_0_0" slope="0.00"/>
        <vehicle id="6" x="-0.564617" y="44.835355" angle="139.60" type="DEFAULT_VEHTYPE" speed="5.74" pos="12.44" lane="25803468#4_0" slope="0.00"/>
        <vehicle id="7" x="-0.555440" y="44.828656" angle="208.72" type="DEFAULT_VEHTYPE" speed="11.76" pos="16.42" lane="144556880#2_0" slope="0.00"/>